ITEM: TIMESTEP
135000
ITEM: NUMBER OF ATOMS
700
ITEM: BOX BOUNDS pp pp pp
-2.8000000000000000e+01 2.8000000000000000e+01
-2.8000000000000000e+01 2.8000000000000000e+01
-2.8000000000000000e+01 2.8000000000000000e+01
ITEM: ATOMS id type x y z ix iy iz 
590 2 -11.3728 -4.45323 -17.4916 0 0 0 
690 2 -10.0974 -3.83101 -17.7872 0 0 0 
609 2 -11.9961 7.76965 -17.6419 0 0 0 
652 2 15.6475 -9.40793 -15.0528 0 0 0 
297 1 0.0979184 -3.37739 -14.9908 0 0 0 
544 2 10.709 0.774134 -16.7817 0 0 0 
624 2 17.8136 3.59132 -16.5369 0 0 0 
538 2 -17.5895 7.2153 -16.0648 0 0 0 
567 2 -5.55815 10.5334 -15.8703 0 0 0 
595 2 -16.4141 12.7634 -15.9754 0 0 0 
645 2 10.4549 12.6497 -15.6668 0 0 0 
665 2 7.71192 14.4758 -15.5567 0 0 0 
675 2 -9.42034 16.829 -15.8467 0 0 0 
670 2 -12.9843 -16.7763 -13.1271 0 0 0 
649 2 5.01528 -16.3561 -13.0902 0 0 0 
677 2 2.60523 -8.07026 -13.2056 0 0 0 
608 2 -16.569 -4.3148 -14.1983 0 0 0 
296 1 0.784015 -3.9941 -14.4905 0 0 0 
295 1 0.717023 -4.48904 -13.667 0 0 0 
298 1 -0.706004 -3.17076 -14.4169 0 0 0 
300 1 -1.79049 -1.99041 -13.3638 0 0 0 
299 1 -1.27865 -2.4642 -14.0055 0 0 0 
505 2 -0.62858 11.3238 -13.3526 0 0 0 
577 2 7.82419 16.9118 -14.0048 0 0 0 
513 2 10.1951 -9.68652 -12.2399 0 0 0 
610 2 -7.40783 -8.37033 -12.9329 0 0 0 
246 1 -5.42915 -3.96266 -11.811 0 0 0 
294 1 0.364978 -5.07735 -12.905 0 0 0 
293 1 0.142179 -5.16701 -11.9608 0 0 0 
554 2 9.83389 -4.94852 -11.9841 0 0 0 
656 2 10.2666 -4.04954 -11.4831 0 0 0 
622 2 12.121 -4.11337 -11.7265 0 0 0 
247 1 -4.6467 -3.68061 -12.2123 0 0 0 
248 1 -4.06709 -2.9893 -11.8603 0 0 0 
249 1 -3.32033 -2.39565 -11.9771 0 0 0 
251 1 -4.01361 -0.550009 -11.6784 0 0 0 
250 1 -3.40995 -1.32071 -11.827 0 0 0 
302 1 -2.0354 -0.56204 -12.1892 0 0 0 
301 1 -1.92635 -1.39567 -12.6608 0 0 0 
303 1 -2.01058 -0.196478 -11.2983 0 0 0 
252 1 -4.58543 0.161096 -11.9679 0 0 0 
253 1 -4.32356 1.00859 -12.4043 0 0 0 
254 1 -3.96609 1.86594 -12.6456 0 0 0 
255 1 -3.34485 2.43604 -12.2499 0 0 0 
256 1 -2.82468 3.08705 -11.7027 0 0 0 
257 1 -2.78424 4.00395 -11.3642 0 0 0 
628 2 -4.14609 6.14199 -11.9732 0 0 0 
605 2 12.1783 9.34777 -12.5174 0 0 0 
563 2 -7.6283 11.53 -12.2908 0 0 0 
523 2 -2.85036 13.8976 -12.695 0 0 0 
700 2 1.79904 16.4733 -12.5244 0 0 0 
196 1 -10.6822 -10.081 -9.66194 0 0 0 
693 2 4.59543 -10.8054 -10.8644 0 0 0 
197 1 -10.8984 -9.17909 -9.42546 0 0 0 
199 1 -11.6453 -7.30395 -9.43491 0 0 0 
200 1 -12.2103 -6.4762 -9.67382 0 0 0 
201 1 -11.5829 -5.75029 -9.36477 0 0 0 
443 1 -10.7143 -6.5408 -9.84313 0 0 0 
444 1 -10.7681 -5.84223 -10.5293 0 0 0 
205 1 -8.53665 -5.73732 -9.40102 0 0 0 
682 2 -6.67448 -6.10124 -9.34977 0 0 0 
291 1 0.29883 -6.38212 -10.4587 0 0 0 
290 1 1.28099 -6.57214 -10.4436 0 0 0 
292 1 0.114581 -5.61621 -11.122 0 0 0 
289 1 1.73037 -6.98944 -9.76341 0 0 0 
445 1 -10.7257 -4.84947 -10.5552 0 0 0 
446 1 -10.0436 -4.18999 -10.3038 0 0 0 
203 1 -9.80233 -5.07456 -9.76067 0 0 0 
202 1 -10.7831 -5.19399 -9.49186 0 0 0 
204 1 -8.91908 -5.2921 -10.1568 0 0 0 
447 1 -9.35682 -3.72356 -9.8393 0 0 0 
245 1 -6.03172 -3.60656 -10.9839 0 0 0 
244 1 -5.87573 -3.3479 -10.0971 0 0 0 
515 2 -2.79171 -2.8888 -9.72804 0 0 0 
588 2 -9.05217 -1.84512 -9.71742 0 0 0 
178 1 -6.47343 -0.0045971 -9.35376 0 0 0 
304 1 -2.01256 -0.566806 -10.3893 0 0 0 
305 1 -2.14884 -0.5963 -9.4308 0 0 0 
177 1 -6.15864 0.58176 -10.0514 0 0 0 
176 1 -5.90692 1.35484 -10.7266 0 0 0 
175 1 -6.53211 1.99212 -11.1064 0 0 0 
174 1 -6.90345 2.85728 -11.0067 0 0 0 
651 2 -5.13752 2.14368 -10.3573 0 0 0 
172 1 -7.88171 4.03504 -10.3606 0 0 0 
171 1 -7.91381 4.42045 -9.42613 0 0 0 
173 1 -7.09637 3.7641 -10.9402 0 0 0 
258 1 -3.33792 4.40172 -10.6818 0 0 0 
259 1 -3.35867 4.02279 -9.80521 0 0 0 
529 2 3.17206 10.768 -9.39805 0 0 0 
695 2 -6.90497 12.8163 -10.4891 0 0 0 
676 2 11.3872 11.6987 -9.84393 0 0 0 
195 1 -10.8066 -10.3952 -8.76713 0 0 0 
194 1 -10.6908 -10.8006 -7.83917 0 0 0 
198 1 -11.3732 -8.27274 -9.33113 0 0 0 
348 1 -12.6457 -7.85659 -7.77559 0 0 0 
441 1 -10.3611 -7.80077 -8.49652 0 0 0 
440 1 -10.7669 -8.09231 -7.70206 0 0 0 
212 1 -3.14272 -7.94561 -8.55013 0 0 0 
286 1 -0.0915517 -8.07859 -8.12635 0 0 0 
287 1 0.749091 -7.82465 -8.49412 0 0 0 
346 1 -13.5201 -6.29022 -7.73192 0 0 0 
347 1 -12.8524 -6.94421 -7.95363 0 0 0 
442 1 -10.6108 -7.22149 -9.17489 0 0 0 
606 2 -10.7237 -6.81427 -7.547 0 0 0 
206 1 -7.79949 -5.60243 -8.78849 0 0 0 
207 1 -6.97435 -5.60172 -8.29749 0 0 0 
208 1 -6.33168 -6.30119 -8.34902 0 0 0 
209 1 -5.46806 -6.47726 -8.90457 0 0 0 
210 1 -4.67174 -6.90261 -8.61232 0 0 0 
211 1 -3.92312 -7.42982 -8.27511 0 0 0 
213 1 -2.39936 -7.33506 -8.7881 0 0 0 
214 1 -1.95453 -6.46125 -8.68822 0 0 0 
215 1 -1.45876 -5.75223 -8.34158 0 0 0 
216 1 -0.872091 -5.74462 -7.52878 0 0 0 
288 1 1.4049 -7.30856 -8.9513 0 0 0 
517 2 15.5374 -6.90443 -9.16727 0 0 0 
658 2 0.0117684 -4.8525 -9.09328 0 0 0 
448 1 -9.44486 -3.56651 -8.81103 0 0 0 
449 1 -9.46911 -3.159 -7.90666 0 0 0 
243 1 -5.73836 -2.96108 -9.23217 0 0 0 
182 1 -7.35111 -3.09292 -7.58998 0 0 0 
181 1 -7.26824 -2.5961 -8.40957 0 0 0 
242 1 -5.18006 -2.88313 -8.46336 0 0 0 
241 1 -4.4584 -2.60236 -7.83207 0 0 0 
180 1 -7.0662 -1.71602 -8.76134 0 0 0 
179 1 -6.98094 -0.773398 -9.05324 0 0 0 
307 1 -4.02561 -0.0915286 -9.05609 0 0 0 
306 1 -3.10452 -0.267643 -9.23949 0 0 0 
310 1 -6.71329 1.03364 -8.96078 0 0 0 
309 1 -5.76669 0.765797 -8.92411 0 0 0 
308 1 -4.83338 0.509448 -8.96596 0 0 0 
311 1 -7.13681 1.90811 -8.68364 0 0 0 
312 1 -7.00413 2.82898 -8.27982 0 0 0 
261 1 -3.8536 2.81613 -8.36672 0 0 0 
262 1 -3.88812 2.25683 -7.50312 0 0 0 
260 1 -3.72378 3.5938 -8.96443 0 0 0 
164 1 -2.15361 3.38273 -7.92313 0 0 0 
162 1 -1.20918 1.88465 -7.58429 0 0 0 
170 1 -7.37804 4.45795 -8.62104 0 0 0 
168 1 -5.72365 4.543 -8.04244 0 0 0 
169 1 -6.46287 4.67338 -8.5685 0 0 0 
166 1 -3.88973 4.19259 -7.95402 0 0 0 
167 1 -4.76789 4.37457 -8.10858 0 0 0 
165 1 -2.94887 3.94413 -7.97697 0 0 0 
575 2 13.3173 9.68039 -8.25359 0 0 0 
571 2 -3.16557 12.4375 -8.93203 0 0 0 
560 2 -3.32426 12.4843 -7.72393 0 0 0 
582 2 -3.87135 16.474 -7.727 0 0 0 
678 2 -7.93611 -13.1649 -6.9051 0 0 0 
569 2 4.41788 -12.7697 -5.64935 0 0 0 
351 1 -12.0337 -9.48616 -5.73824 0 0 0 
192 1 -9.91222 -10.5167 -6.12935 0 0 0 
193 1 -10.4725 -10.6652 -6.92994 0 0 0 
191 1 -8.9842 -10.5242 -5.80545 0 0 0 
190 1 -8.11861 -10.3189 -6.19606 0 0 0 
189 1 -8.33491 -9.37515 -6.3759 0 0 0 
281 1 -3.85474 -9.39858 -5.94161 0 0 0 
439 1 -11.4181 -8.33257 -7.0006 0 0 0 
438 1 -11.6411 -7.82689 -6.20515 0 0 0 
349 1 -12.8221 -8.66138 -7.2401 0 0 0 
350 1 -12.7028 -9.00599 -6.32567 0 0 0 
188 1 -8.32885 -8.48259 -6.17561 0 0 0 
187 1 -8.2489 -7.49238 -6.14774 0 0 0 
278 1 -5.76666 -7.88639 -6.67745 0 0 0 
280 1 -4.51598 -9.18877 -6.53853 0 0 0 
279 1 -5.34885 -8.73469 -6.87129 0 0 0 
283 1 -2.08062 -8.98756 -6.45088 0 0 0 
282 1 -2.98527 -8.98799 -6.13128 0 0 0 
284 1 -1.21681 -8.67636 -6.75106 0 0 0 
285 1 -0.482872 -8.51991 -7.3654 0 0 0 
641 2 -15.3783 -6.02428 -5.71034 0 0 0 
345 1 -13.0957 -6.03893 -6.92546 0 0 0 
185 1 -8.40333 -5.60908 -6.36428 0 0 0 
186 1 -8.25551 -6.492 -6.14384 0 0 0 
277 1 -6.37657 -7.20989 -6.86536 0 0 0 
276 1 -5.73028 -6.47377 -6.77488 0 0 0 
275 1 -5.42115 -6.32141 -5.84473 0 0 0 
654 2 17.3241 -6.54532 -6.03065 0 0 0 
344 1 -12.3183 -5.51774 -6.70833 0 0 0 
343 1 -11.3756 -5.50775 -6.70873 0 0 0 
342 1 -10.5488 -5.54941 -6.25976 0 0 0 
183 1 -7.75612 -3.9351 -7.30955 0 0 0 
184 1 -8.13343 -4.62194 -6.82987 0 0 0 
562 2 -5.30827 -5.06713 -7.12678 0 0 0 
273 1 -4.46583 -4.79806 -5.60016 0 0 0 
217 1 -0.703497 -5.57827 -6.57817 0 0 0 
218 1 -0.921559 -5.01959 -5.79049 0 0 0 
514 2 -17.676 -3.35926 -7.2891 0 0 0 
450 1 -10.0299 -2.86222 -7.20495 0 0 0 
451 1 -10.129 -2.66034 -6.26185 0 0 0 
369 1 -8.87949 -1.99155 -5.79985 0 0 0 
240 1 -3.73328 -2.5885 -7.15478 0 0 0 
156 1 -1.98445 -2.26026 -6.0166 0 0 0 
157 1 -1.51247 -2.63634 -6.80063 0 0 0 
415 1 -14.6711 -0.994832 -5.88071 0 0 0 
414 1 -14.6586 -0.254683 -6.53785 0 0 0 
371 1 -10.2413 -0.610552 -5.71466 0 0 0 
370 1 -9.46626 -1.22654 -5.78723 0 0 0 
269 1 -4.72482 -1.45777 -5.6417 0 0 0 
239 1 -3.37432 -1.68195 -7.04069 0 0 0 
238 1 -2.69102 -1.00886 -6.68537 0 0 0 
237 1 -1.99423 -0.455741 -6.48151 0 0 0 
236 1 -1.91117 -0.0512108 -5.62909 0 0 0 
159 1 -0.953588 -0.848932 -6.70802 0 0 0 
158 1 -1.0923 -1.7484 -7.08527 0 0 0 
412 1 -13.1771 0.624694 -7.38086 0 0 0 
413 1 -13.9639 0.312108 -6.95576 0 0 0 
410 1 -11.7459 1.19667 -6.74038 0 0 0 
411 1 -12.4764 1.28142 -7.36452 0 0 0 
409 1 -11.2198 1.36684 -5.92184 0 0 0 
161 1 -1.0976 0.977814 -7.37317 0 0 0 
160 1 -1.10449 0.115336 -6.78826 0 0 0 
315 1 -7.51123 3.16297 -5.73131 0 0 0 
313 1 -7.19819 2.65526 -7.33108 0 0 0 
314 1 -7.14868 3.2516 -6.5385 0 0 0 
264 1 -3.47304 1.90705 -5.6106 0 0 0 
263 1 -3.69862 1.98321 -6.58644 0 0 0 
163 1 -1.6181 2.75727 -7.39479 0 0 0 
576 2 3.92084 4.0884 -7.0293 0 0 0 
546 2 10.2814 4.39185 -6.93282 0 0 0 
600 2 15.9594 6.0884 -6.07293 0 0 0 
542 2 -1.80439 14.4592 -5.9916 0 0 0 
557 2 3.1785 15.0084 -7.1476 0 0 0 
574 2 8.64345 -13.3062 -4.46009 0 0 0 
352 1 -11.5347 -9.78254 -4.89709 0 0 0 
353 1 -10.7646 -9.65217 -4.34111 0 0 0 
435 1 -13.5462 -8.78647 -4.43439 0 0 0 
437 1 -12.0954 -8.4145 -5.55718 0 0 0 
436 1 -12.889 -8.81323 -5.15364 0 0 0 
354 1 -9.9576 -9.17364 -3.98716 0 0 0 
355 1 -9.51908 -8.23284 -3.90904 0 0 0 
357 1 -9.46538 -6.37101 -4.1049 0 0 0 
356 1 -9.15052 -7.31025 -4.13157 0 0 0 
393 1 -4.84697 -6.88869 -4.0326 0 0 0 
394 1 -4.73547 -5.89424 -3.96702 0 0 0 
274 1 -4.89081 -5.61449 -5.48306 0 0 0 
341 1 -10.5673 -5.30336 -5.29378 0 0 0 
340 1 -10.8586 -5.49214 -4.43057 0 0 0 
358 1 -9.08107 -5.48133 -4.03721 0 0 0 
359 1 -8.79776 -4.52972 -3.85886 0 0 0 
395 1 -5.2466 -5.11576 -3.91048 0 0 0 
272 1 -4.50019 -3.86587 -5.27611 0 0 0 
396 1 -5.25238 -4.1548 -4.27006 0 0 0 
219 1 -1.16563 -4.87759 -4.88083 0 0 0 
220 1 -1.79847 -4.31545 -4.30499 0 0 0 
452 1 -10.4857 -2.00747 -5.5939 0 0 0 
368 1 -7.92796 -2.04978 -5.51555 0 0 0 
367 1 -7.16645 -1.99782 -4.87954 0 0 0 
398 1 -5.67906 -2.49071 -4.08451 0 0 0 
270 1 -5.12904 -2.06459 -5.06144 0 0 0 
397 1 -5.52644 -3.30415 -4.46107 0 0 0 
271 1 -4.53012 -2.91072 -5.09796 0 0 0 
155 1 -2.5408 -2.08794 -5.22395 0 0 0 
698 2 8.43522 -2.78468 -5.41287 0 0 0 
417 1 -15.104 -1.76967 -4.31129 0 0 0 
416 1 -14.619 -1.62347 -5.16095 0 0 0 
454 1 -11.2992 -0.834174 -4.43353 0 0 0 
373 1 -11.9826 -0.169767 -5.41135 0 0 0 
374 1 -12.2738 -0.563615 -4.55255 0 0 0 
453 1 -10.8908 -1.29264 -5.12954 0 0 0 
455 1 -10.7217 -0.215188 -3.9401 0 0 0 
372 1 -11.0098 -0.0611379 -5.36956 0 0 0 
147 1 -7.70998 -0.597757 -4.22113 0 0 0 
366 1 -7.00653 -1.80374 -3.88417 0 0 0 
400 1 -6.04843 -0.588225 -4.39697 0 0 0 
399 1 -5.84068 -1.53891 -4.15181 0 0 0 
268 1 -4.16733 -0.58686 -5.33259 0 0 0 
152 1 -4.48289 -0.60492 -3.9358 0 0 0 
153 1 -3.72146 -1.14106 -4.02097 0 0 0 
154 1 -3.24733 -1.52826 -4.73944 0 0 0 
661 2 -16.1014 0.442944 -3.93443 0 0 0 
668 2 -15.3924 1.81251 -3.998 0 0 0 
408 1 -11.3425 1.51041 -4.99728 0 0 0 
407 1 -10.5205 1.74299 -4.59867 0 0 0 
148 1 -7.20285 0.124513 -4.66128 0 0 0 
149 1 -6.63325 0.356888 -5.32944 0 0 0 
150 1 -5.70795 0.442874 -4.95071 0 0 0 
401 1 -6.32273 0.310536 -4.02537 0 0 0 
267 1 -3.88862 0.294479 -4.91964 0 0 0 
151 1 -4.96719 0.0773135 -4.38613 0 0 0 
266 1 -3.6811 1.16736 -4.7112 0 0 0 
234 1 -2.66298 0.377227 -4.10303 0 0 0 
235 1 -2.52559 0.384085 -5.08129 0 0 0 
520 2 -14.9199 3.06595 -5.57164 0 0 0 
406 1 -9.63291 2.00456 -4.3116 0 0 0 
316 1 -8.35928 3.58137 -5.55758 0 0 0 
404 1 -7.91279 2.46895 -3.74667 0 0 0 
405 1 -8.71639 2.17784 -4.28245 0 0 0 
265 1 -3.23629 2.0496 -4.67712 0 0 0 
629 2 7.62207 2.52619 -4.5539 0 0 0 
317 1 -8.10069 4.09706 -4.78273 0 0 0 
319 1 -6.2304 4.82724 -4.46434 0 0 0 
318 1 -7.0792 4.45509 -4.78658 0 0 0 
320 1 -5.87614 5.5693 -4.01629 0 0 0 
543 2 10.9684 5.18216 -4.53833 0 0 0 
615 2 17.6213 5.69259 -3.90398 0 0 0 
599 2 2.7549 9.81897 -3.79003 0 0 0 
536 2 -0.458983 14.7015 -3.87535 0 0 0 
511 2 3.18832 13.5449 -4.35533 0 0 0 
580 2 4.07059 13.2652 -5.01474 0 0 0 
524 2 4.83178 13.2305 -3.96822 0 0 0 
672 2 5.52484 14.4083 -4.02232 0 0 0 
535 2 5.11506 13.6207 -5.08749 0 0 0 
503 2 4.34266 14.115 -4.31653 0 0 0 
432 1 -16.0201 -8.40784 -3.16595 0 0 0 
431 1 -16.5788 -7.92226 -2.54389 0 0 0 
433 1 -15.1086 -8.86334 -3.31737 0 0 0 
434 1 -14.2172 -9.05427 -3.63152 0 0 0 
389 1 -7.57209 -8.21718 -2.30269 0 0 0 
388 1 -8.54452 -8.4266 -2.12361 0 0 0 
390 1 -6.78013 -8.28378 -2.73936 0 0 0 
391 1 -5.87788 -8.2472 -3.04626 0 0 0 
392 1 -5.25298 -7.61303 -3.52432 0 0 0 
383 1 -11.5721 -7.44653 -1.97295 0 0 0 
510 2 -6.52199 -7.23254 -3.36352 0 0 0 
623 2 12.1598 -6.55052 -2.27016 0 0 0 
379 1 -11.8605 -3.80268 -2.09348 0 0 0 
380 1 -11.5904 -4.7236 -1.91271 0 0 0 
338 1 -10.3779 -5.03411 -2.63599 0 0 0 
339 1 -10.7399 -5.4434 -3.47609 0 0 0 
337 1 -10.1051 -4.08724 -2.31201 0 0 0 
360 1 -8.83098 -4.32423 -2.92546 0 0 0 
361 1 -8.8591 -3.97576 -2.06388 0 0 0 
221 1 -1.9758 -3.75274 -3.51662 0 0 0 
591 2 12.3891 -3.87738 -3.61601 0 0 0 
419 1 -14.5165 -1.95461 -2.52313 0 0 0 
378 1 -12.1081 -2.93485 -2.33473 0 0 0 
377 1 -12.3402 -1.97368 -2.36439 0 0 0 
634 2 -11.3514 -3.30519 -3.3419 0 0 0 
362 1 -8.53392 -3.13129 -1.89256 0 0 0 
363 1 -7.9304 -2.40086 -2.00668 0 0 0 
364 1 -7.04364 -2.21205 -2.27707 0 0 0 
222 1 -2.23728 -3.20938 -2.70705 0 0 0 
418 1 -14.7278 -1.72863 -3.4483 0 0 0 
376 1 -12.714 -1.27029 -2.91288 0 0 0 
375 1 -12.2569 -0.767088 -3.60858 0 0 0 
145 1 -6.49632 -0.277001 -2.7598 0 0 0 
144 1 -5.77963 -0.478542 -2.07419 0 0 0 
365 1 -7.15115 -1.5359 -2.9885 0 0 0 
146 1 -7.2717 -0.254501 -3.44167 0 0 0 
142 1 -4.84971 -1.85589 -2.24478 0 0 0 
141 1 -4.13764 -1.36626 -2.53908 0 0 0 
140 1 -3.47489 -0.670917 -2.60208 0 0 0 
139 1 -2.74287 -0.414774 -1.98628 0 0 0 
138 1 -1.75814 -0.360762 -2.23224 0 0 0 
137 1 -0.959587 -0.39028 -2.80576 0 0 0 
457 1 -11.2145 0.806857 -2.26462 0 0 0 
456 1 -10.8079 0.368757 -3.04723 0 0 0 
403 1 -7.10396 1.80756 -3.55142 0 0 0 
402 1 -6.52637 1.01453 -3.36555 0 0 0 
233 1 -2.42034 0.485484 -3.19172 0 0 0 
232 1 -2.77666 0.569145 -2.28927 0 0 0 
136 1 -0.524425 0.292866 -2.31609 0 0 0 
135 1 0.0526171 1.01123 -2.06875 0 0 0 
697 2 -8.83219 3.66309 -1.92336 0 0 0 
561 2 -2.39178 2.09873 -2.26459 0 0 0 
631 2 -2.29932 2.65353 -3.56161 0 0 0 
534 2 -9.83151 4.18654 -2.11061 0 0 0 
593 2 -8.89389 4.52045 -2.83242 0 0 0 
501 2 -7.83906 4.18864 -2.69544 0 0 0 
642 2 -8.14442 5.24662 -2.82349 0 0 0 
647 2 -9.02104 5.82059 -2.61431 0 0 0 
467 1 -8.4144 6.93564 -2.0145 0 0 0 
322 1 -5.52953 6.02728 -2.18036 0 0 0 
321 1 -5.56345 6.00255 -3.16525 0 0 0 
689 2 -16.1406 8.86633 -1.86747 0 0 0 
468 1 -7.6881 7.68174 -1.95926 0 0 0 
469 1 -7.47091 8.6448 -1.9195 0 0 0 
528 2 2.78661 9.10217 -2.96834 0 0 0 
551 2 5.79135 11.1341 -2.78874 0 0 0 
539 2 -7.27401 12.8817 -3.29686 0 0 0 
533 2 2.83399 12.7323 -3.62854 0 0 0 
618 2 5.04885 12.2907 -3.38986 0 0 0 
550 2 3.99109 12.8161 -3.48235 0 0 0 
558 2 12.8125 12.2691 -2.08741 0 0 0 
673 2 -0.930795 13.7581 -3.50293 0 0 0 
509 2 5.57967 14.2125 -2.97448 0 0 0 
506 2 4.59846 13.7202 -3.05831 0 0 0 
587 2 5.90866 13.3588 -3.53763 0 0 0 
384 1 -11.2753 -8.27131 -1.48868 0 0 0 
386 1 -10.2786 -8.94624 -1.47151 0 0 0 
385 1 -11.1141 -9.05378 -0.930875 0 0 0 
387 1 -9.19216 -8.83983 -1.60665 0 0 0 
598 2 -7.96457 -7.48031 -1.05598 0 0 0 
430 1 -16.5101 -7.32798 -1.82153 0 0 0 
429 1 -16.6722 -7.19383 -0.915217 0 0 0 
428 1 -16.3603 -6.35965 -0.440351 0 0 0 
382 1 -11.5397 -6.53786 -1.5062 0 0 0 
381 1 -11.3239 -5.57675 -1.55818 0 0 0 
421 1 -15.6001 -2.1875 -1.1227 0 0 0 
422 1 -16.0235 -2.28017 -0.247567 0 0 0 
420 1 -14.8103 -2.28798 -1.65586 0 0 0 
336 1 -9.99284 -3.25653 -1.75631 0 0 0 
335 1 -9.51165 -2.90933 -0.98031 0 0 0 
334 1 -9.19389 -2.36937 -0.157573 0 0 0 
223 1 -2.23372 -2.89368 -1.77349 0 0 0 
224 1 -2.03036 -2.4883 -0.935937 0 0 0 
332 1 -8.0003 -1.06917 -0.0228785 0 0 0 
331 1 -8.05556 -0.127588 -0.337651 0 0 0 
143 1 -5.61746 -1.38519 -1.82661 0 0 0 
225 1 -1.68849 -1.86345 -0.265916 0 0 0 
226 1 -1.43419 -0.935749 -0.166838 0 0 0 
227 1 -1.07097 -0.0322294 -0.0511853 0 0 0 
458 1 -11.433 1.68563 -1.8293 0 0 0 
329 1 -8.25141 1.60739 -0.957756 0 0 0 
330 1 -7.89998 0.826883 -0.505148 0 0 0 
507 2 -2.01438 0.241506 -0.717133 0 0 0 
231 1 -2.34331 1.18675 -1.75263 0 0 0 
230 1 -2.05513 1.45788 -0.865921 0 0 0 
134 1 0.623078 1.7394 -1.69164 0 0 0 
459 1 -11.2155 2.43612 -1.18708 0 0 0 
460 1 -11.1301 2.93098 -0.303703 0 0 0 
328 1 -8.11775 2.32431 -1.57991 0 0 0 
327 1 -7.68111 3.20196 -1.73062 0 0 0 
133 1 1.49611 2.22129 -1.72109 0 0 0 
132 1 1.18514 3.07347 -1.74236 0 0 0 
461 1 -10.7277 3.84685 -0.367371 0 0 0 
462 1 -10.8784 4.8086 -0.63427 0 0 0 
681 2 -9.22835 5.35325 -0.807473 0 0 0 
607 2 -8.95038 4.36373 -0.96822 0 0 0 
692 2 -8.05805 4.68104 -1.80663 0 0 0 
669 2 -9.02145 5.0386 -1.83642 0 0 0 
326 1 -7.58886 3.79724 -0.966723 0 0 0 
660 2 -7.83031 5.18841 -0.682887 0 0 0 
325 1 -7.02678 4.51602 -0.925609 0 0 0 
324 1 -6.3731 5.19272 -1.25318 0 0 0 
323 1 -5.49734 5.55885 -1.29863 0 0 0 
131 1 1.15395 3.90822 -1.15522 0 0 0 
130 1 1.26702 4.72955 -0.704961 0 0 0 
129 1 2.20611 5.28749 -0.512529 0 0 0 
128 1 3.0204 5.31243 -0.0647268 0 0 0 
464 1 -10.8599 6.11968 -0.829942 0 0 0 
465 1 -10.153 6.49806 -1.39105 0 0 0 
639 2 -8.30969 5.80569 -1.51671 0 0 0 
466 1 -9.2616 6.67884 -1.75894 0 0 0 
470 1 -7.58507 9.31729 -1.20915 0 0 0 
674 2 -8.37975 8.76183 -0.937486 0 0 0 
617 2 10.9425 8.8978 -0.292855 0 0 0 
471 1 -7.50624 9.39506 -0.264637 0 0 0 
684 2 7.33228 10.484 -1.30567 0 0 0 
578 2 8.01333 9.93333 -0.249262 0 0 0 
643 2 8.38068 10.8816 -0.946757 0 0 0 
648 2 -7.53411 12.506 -0.970067 0 0 0 
553 2 4.66193 13.9172 -1.84696 0 0 0 
616 2 -9.38736 16.2938 -1.48026 0 0 0 
547 2 -13.5199 -15.1137 1.55334 0 0 0 
657 2 -16.5727 -14.8282 0.267159 0 0 0 
638 2 1.00004 -14.1473 0.183847 0 0 0 
602 2 14.4584 -7.64301 1.63504 0 0 0 
427 1 -16.3394 -5.55324 0.081309 0 0 0 
426 1 -16.6523 -5.20024 0.923702 0 0 0 
425 1 -16.4971 -4.30852 0.509192 0 0 0 
525 2 11.0093 -4.56122 0.876758 0 0 0 
424 1 -16.0924 -3.42584 0.292453 0 0 0 
423 1 -16.1944 -2.56054 0.668029 0 0 0 
333 1 -8.43842 -1.84488 0.208787 0 0 0 
40 1 -5.25352 -0.665809 1.81993 0 0 0 
228 1 -1.47572 0.616522 0.507199 0 0 0 
229 1 -1.67234 1.56303 0.106782 0 0 0 
463 1 -10.8187 5.49768 0.0374718 0 0 0 
568 2 -9.74869 4.44687 0.108888 0 0 0 
46 1 -3.24971 4.44611 1.82475 0 0 0 
47 1 -2.7123 5.2951 1.69225 0 0 0 
48 1 -2.15931 5.963 1.30249 0 0 0 
49 1 -1.37508 6.36635 1.63533 0 0 0 
127 1 3.4012 6.00674 0.504951 0 0 0 
126 1 3.40973 6.44953 1.3572 0 0 0 
640 2 7.96907 7.85741 1.10121 0 0 0 
472 1 -7.69271 9.52255 0.669187 0 0 0 
473 1 -7.79354 9.39047 1.64445 0 0 0 
570 2 8.92896 10.6259 1.74742 0 0 0 
522 2 -5.63482 14.0695 1.49509 0 0 0 
559 2 -3.50517 14.5641 0.292136 0 0 0 
604 2 -4.88013 14.982 1.19456 0 0 0 
625 2 -3.89951 15.4404 0.68926 0 0 0 
653 2 17.3738 16.0121 1.07886 0 0 0 
537 2 -3.87009 -14.8659 1.94521 0 0 0 
686 2 -11.5135 -12.6903 2.35775 0 0 0 
655 2 6.47508 -3.91729 3.61382 0 0 0 
37 1 -6.32428 -2.5533 3.15748 0 0 0 
38 1 -6.11485 -2.37698 2.16079 0 0 0 
33 1 -4.08049 -2.74219 3.63594 0 0 0 
39 1 -5.88222 -1.46294 1.88882 0 0 0 
42 1 -4.388 1.00949 2.27395 0 0 0 
41 1 -4.84857 0.181901 2.08109 0 0 0 
633 2 -10.2644 3.38808 2.82464 0 0 0 
43 1 -4.44377 2.00464 2.28751 0 0 0 
44 1 -4.06922 2.83767 2.44475 0 0 0 
45 1 -3.59224 3.55281 2.01431 0 0 0 
699 2 -3.36519 3.55137 2.96202 0 0 0 
52 1 0.0829279 5.52755 3.68681 0 0 0 
50 1 -1.20959 6.37853 2.67286 0 0 0 
51 1 -0.520777 6.12652 3.23814 0 0 0 
125 1 3.26052 7.01861 2.21957 0 0 0 
124 1 3.16166 7.28958 3.18763 0 0 0 
696 2 11.978 6.56956 3.03245 0 0 0 
474 1 -7.6419 8.85987 2.47718 0 0 0 
475 1 -7.70396 8.68966 3.42827 0 0 0 
621 2 -6.67411 8.47265 2.17606 0 0 0 
611 2 7.95996 17.4036 2.48983 0 0 0 
545 2 -11.8887 -15.7174 5.09695 0 0 0 
688 2 -2.55066 -13.4441 4.90325 0 0 0 
521 2 -14.0651 -7.73146 4.56804 0 0 0 
679 2 11.5837 -7.74703 4.10769 0 0 0 
552 2 -11.0386 -4.85647 4.41596 0 0 0 
31 1 -2.7305 -3.76592 4.0836 0 0 0 
30 1 -1.96359 -4.3881 4.15855 0 0 0 
28 1 -0.606459 -5.27526 5.28545 0 0 0 
29 1 -1.29171 -4.8878 4.59463 0 0 0 
36 1 -6.58125 -2.82804 4.07662 0 0 0 
35 1 -5.70365 -2.97351 4.499 0 0 0 
34 1 -4.96933 -2.62271 3.99153 0 0 0 
32 1 -3.38443 -3.11311 4.13013 0 0 0 
630 2 3.01102 -3.62068 5.47784 0 0 0 
584 2 -16.9151 1.11422 4.47948 0 0 0 
518 2 7.68843 0.896076 5.42278 0 0 0 
55 1 1.74578 3.62416 4.88183 0 0 0 
56 1 2.52236 3.57506 5.49162 0 0 0 
53 1 0.667156 5.10754 4.32329 0 0 0 
54 1 1.22418 4.37325 4.56732 0 0 0 
613 2 6.57333 5.32122 5.33512 0 0 0 
579 2 7.51971 4.69301 4.41514 0 0 0 
581 2 8.49649 4.99872 4.89382 0 0 0 
659 2 -16.7711 6.05458 4.11237 0 0 0 
122 1 2.96184 6.65349 5.03221 0 0 0 
123 1 3.04558 6.9043 4.05208 0 0 0 
585 2 17.5774 6.32228 4.55569 0 0 0 
476 1 -7.32399 8.18389 4.20022 0 0 0 
477 1 -6.84728 8.52844 5.06533 0 0 0 
564 2 -1.11684 12.7255 4.74971 0 0 0 
23 1 -4.1619 -7.2186 7.05247 0 0 0 
24 1 -3.2749 -6.90434 7.05997 0 0 0 
25 1 -2.30892 -6.72701 7.1425 0 0 0 
26 1 -1.52618 -6.28416 6.67781 0 0 0 
27 1 -1.26713 -5.66194 5.94534 0 0 0 
596 2 -9.49213 -4.79799 7.13396 0 0 0 
694 2 10.9708 -2.29966 6.59344 0 0 0 
589 2 -2.99211 -0.0215604 6.69134 0 0 0 
512 2 -13.1108 1.79999 6.48687 0 0 0 
63 1 7.08757 2.96451 7.16991 0 0 0 
64 1 7.64676 3.28991 6.48107 0 0 0 
65 1 8.56779 3.2025 6.26119 0 0 0 
66 1 9.25591 3.6602 5.72633 0 0 0 
57 1 2.8047 4.07971 6.2428 0 0 0 
58 1 3.47974 3.97849 6.92876 0 0 0 
662 2 7.59732 4.72267 5.69218 0 0 0 
67 1 9.86917 4.31074 5.94008 0 0 0 
68 1 10.5183 5.03976 6.00244 0 0 0 
119 1 1.55102 5.84066 7.3123 0 0 0 
120 1 1.70753 6.30817 6.41718 0 0 0 
121 1 2.43155 6.50972 5.84443 0 0 0 
556 2 5.27637 6.03416 7.34643 0 0 0 
70 1 10.9374 6.5225 6.7497 0 0 0 
69 1 11.1411 5.68957 6.23889 0 0 0 
71 1 10.7056 7.43266 6.75544 0 0 0 
478 1 -6.69691 8.33451 6.01105 0 0 0 
479 1 -5.83044 8.20176 6.48954 0 0 0 
480 1 -5.30122 7.86969 7.20932 0 0 0 
72 1 10.421 8.34303 6.79139 0 0 0 
650 2 -16.4208 11.0324 6.85272 0 0 0 
601 2 6.11532 16.7334 6.31619 0 0 0 
636 2 6.31141 -13.2629 9.07369 0 0 0 
19 1 -7.51706 -7.68009 8.11829 0 0 0 
18 1 -7.57282 -8.09961 9.00975 0 0 0 
21 1 -5.95258 -7.36914 7.46822 0 0 0 
20 1 -6.79443 -7.04823 7.73141 0 0 0 
22 1 -5.00859 -7.35668 7.58489 0 0 0 
527 2 -12.3865 -4.14256 8.77581 0 0 0 
116 1 0.852697 3.65342 8.92282 0 0 0 
59 1 4.08046 3.68074 7.59477 0 0 0 
60 1 4.90213 3.15816 7.69846 0 0 0 
61 1 5.60813 3.11372 8.38534 0 0 0 
62 1 6.34004 2.88931 7.77739 0 0 0 
526 2 -13.6247 4.24646 8.87701 0 0 0 
619 2 -2.71954 5.4091 8.44721 0 0 0 
117 1 1.12674 4.16131 8.13373 0 0 0 
118 1 1.44229 5.03912 7.75018 0 0 0 
592 2 1.79731 5.06022 8.70503 0 0 0 
495 1 3.813 5.65243 9.09881 0 0 0 
496 1 4.37006 6.191 8.56784 0 0 0 
497 1 5.2648 6.57426 8.26851 0 0 0 
498 1 6.00406 7.09029 7.95295 0 0 0 
499 1 6.99053 7.17866 8.02306 0 0 0 
481 1 -4.8619 7.95446 8.00561 0 0 0 
482 1 -4.5313 8.55139 8.62119 0 0 0 
483 1 -3.64059 8.6379 8.36538 0 0 0 
484 1 -2.66678 8.62453 8.47996 0 0 0 
485 1 -2.07234 8.31095 9.16943 0 0 0 
500 1 7.74264 7.52459 8.58337 0 0 0 
75 1 8.82207 8.83923 8.83971 0 0 0 
573 2 10.7266 8.54768 9.28685 0 0 0 
73 1 10.2324 8.89254 7.5613 0 0 0 
74 1 9.68908 8.94549 8.40431 0 0 0 
519 2 -5.55026 10.9996 7.58934 0 0 0 
504 2 -15.2837 11.774 9.18222 0 0 0 
635 2 9.49303 14.1396 7.95839 0 0 0 
646 2 8.50271 17.3258 8.83311 0 0 0 
531 2 3.68917 -14.0371 10.3531 0 0 0 
565 2 -16.6774 -11.9649 10.3733 0 0 0 
566 2 0.780605 -12.3439 10.0013 0 0 0 
17 1 -7.32898 -8.46354 9.83599 0 0 0 
16 1 -6.76597 -8.75787 10.5884 0 0 0 
12 1 -3.85965 -7.8636 11.0624 0 0 0 
541 2 -5.51895 -1.62961 9.63481 0 0 0 
626 2 10.8847 0.551633 9.69507 0 0 0 
666 2 0.647642 4.8831 10.221 0 0 0 
114 1 0.0434713 3.77967 10.6136 0 0 0 
115 1 0.437957 3.79752 9.6973 0 0 0 
494 1 3.39304 5.12141 9.78114 0 0 0 
492 1 2.13174 4.15365 10.8341 0 0 0 
493 1 2.73927 4.52933 10.2351 0 0 0 
487 1 -0.921386 7.34723 10.3627 0 0 0 
488 1 -0.0100864 6.98606 10.6097 0 0 0 
489 1 0.594496 6.35503 10.9872 0 0 0 
603 2 13.568 6.11504 10.2706 0 0 0 
486 1 -1.33743 7.83679 9.63419 0 0 0 
76 1 8.17544 9.06756 9.53233 0 0 0 
77 1 8.26599 8.99977 10.4671 0 0 0 
691 2 -11.3904 13.4215 10.0509 0 0 0 
594 2 -11.5588 -18.0319 12.2917 0 0 0 
685 2 6.23832 -15.6753 12.1354 0 0 0 
2 1 -2.24946 -13.624 12.7865 0 0 0 
1 1 -1.52643 -14.1258 12.2895 0 0 0 
663 2 2.71027 -14.4002 12.7702 0 0 0 
664 2 -4.12763 -11.8697 12.7464 0 0 0 
687 2 -1.93003 -12.5149 12.3693 0 0 0 
15 1 -6.15959 -8.31057 11.2446 0 0 0 
14 1 -5.42956 -7.69976 11.603 0 0 0 
10 1 -3.31267 -8.32865 12.8489 0 0 0 
11 1 -3.42811 -7.98027 11.9187 0 0 0 
13 1 -4.5207 -7.37938 11.5713 0 0 0 
637 2 2.32499 0.757698 11.747 0 0 0 
112 1 -0.973362 3.71004 12.3084 0 0 0 
113 1 -0.374716 3.62087 11.4554 0 0 0 
490 1 1.14259 5.54476 11.2443 0 0 0 
491 1 1.40666 4.68556 11.242 0 0 0 
79 1 8.57047 8.81751 12.2582 0 0 0 
78 1 8.64359 8.97264 11.3497 0 0 0 
572 2 1.67055 -17.8791 14.3268 0 0 0 
548 2 6.49923 -15.9161 13.1773 0 0 0 
683 2 11.9304 -16.4381 14.1461 0 0 0 
3 1 -2.47916 -13.026 13.5245 0 0 0 
4 1 -3.11585 -12.5928 14.0388 0 0 0 
5 1 -3.63784 -11.9949 14.6268 0 0 0 
6 1 -3.79655 -11.0467 14.9037 0 0 0 
8 1 -3.88797 -9.65295 14.0672 0 0 0 
9 1 -3.73997 -9.0034 13.3616 0 0 0 
667 2 -6.84536 -5.3861 14.5951 0 0 0 
516 2 3.57268 -5.08683 13.7086 0 0 0 
109 1 -1.68773 1.79747 13.8504 0 0 0 
108 1 -1.57605 0.882568 14.0813 0 0 0 
107 1 -1.00376 0.346902 14.6735 0 0 0 
106 1 0.0086365 0.158606 14.6659 0 0 0 
110 1 -1.57556 2.7177 13.7126 0 0 0 
111 1 -1.501 3.5129 13.1489 0 0 0 
549 2 3.31359 3.19631 14.7785 0 0 0 
89 1 0.5984 6.91727 14.6892 0 0 0 
88 1 1.40766 7.357 14.5401 0 0 0 
532 2 11.3064 6.79435 14.2617 0 0 0 
87 1 2.25062 7.57761 14.1752 0 0 0 
86 1 3.18346 7.67805 14.4061 0 0 0 
632 2 5.28965 8.53995 13.8577 0 0 0 
85 1 4.13915 7.82762 14.5537 0 0 0 
84 1 4.87568 8.38711 14.8267 0 0 0 
82 1 6.62536 8.45767 14.4895 0 0 0 
81 1 7.22635 8.85876 13.7905 0 0 0 
83 1 5.7761 8.72442 14.816 0 0 0 
80 1 7.98907 8.748 13.1592 0 0 0 
627 2 -5.35403 10.6612 13.5993 0 0 0 
555 2 16.6458 9.4662 13.8458 0 0 0 
671 2 14.9448 10.1012 14.7863 0 0 0 
680 2 -9.1632 -16.9084 15.0541 0 0 0 
583 2 17.8058 -14.3167 16.0044 0 0 0 
7 1 -3.74899 -10.0846 14.9559 0 0 0 
644 2 16.5426 -2.88734 16.195 0 0 0 
105 1 0.874721 -0.0378001 15.1009 0 0 0 
103 1 2.5776 -0.180696 15.5924 0 0 0 
102 1 3.46839 -0.0292365 16.085 0 0 0 
104 1 1.81146 0.163598 15.0374 0 0 0 
101 1 4.34382 0.437719 15.9337 0 0 0 
100 1 3.98563 1.31723 16.2493 0 0 0 
530 2 -6.80537 3.02864 15.6136 0 0 0 
95 1 0.895259 2.81735 16.3443 0 0 0 
96 1 1.81631 2.84965 16.5471 0 0 0 
94 1 0.134815 3.53716 16.2669 0 0 0 
99 1 3.48095 2.12457 16.2044 0 0 0 
98 1 3.20156 3.10232 16.4024 0 0 0 
93 1 -0.270997 4.36187 16.4636 0 0 0 
92 1 -0.680877 5.24297 16.3059 0 0 0 
91 1 -0.611625 5.59501 15.4555 0 0 0 
597 2 2.19805 3.78452 15.0708 0 0 0 
90 1 0.186026 6.18393 15.2123 0 0 0 
612 2 7.2302 13.168 16.2411 0 0 0 
502 2 2.95689 -15.8902 17.7744 0 0 0 
540 2 -14.7777 -9.94206 17.5045 0 0 0 
614 2 3.24023 -10.9565 17.5559 0 0 0 
586 2 11.3569 -1.93645 17.0119 0 0 0 
97 1 2.52304 3.13733 17.1149 0 0 0 
620 2 16.2479 4.23997 18.184 0 0 0 
508 2 14.0245 13.0264 17.7535 0 0 0 
ITEM: TIMESTEP
136000
ITEM: NUMBER OF ATOMS
700
ITEM: BOX BOUNDS pp pp pp
-2.8000000000000000e+01 2.8000000000000000e+01
-2.8000000000000000e+01 2.8000000000000000e+01
-2.8000000000000000e+01 2.8000000000000000e+01
ITEM: ATOMS id type x y z ix iy iz 
590 2 -8.52172 -7.37049 -15.254 0 0 0 
690 2 -9.17297 -8.62115 -13.879 0 0 0 
609 2 -6.39633 6.59627 -13.7734 0 0 0 
652 2 13.5154 -3.62839 -14.6931 0 0 0 
297 1 0.705309 -4.75159 -14.075 0 0 0 
544 2 13.9665 1.49766 -11.1457 0 0 0 
624 2 12.5952 6.09749 -9.39191 0 0 0 
538 2 -14.3894 10.1573 -15.5991 0 0 0 
567 2 -4.78622 7.37012 -15.5238 0 0 0 
595 2 -12.3744 13.2512 -17.1816 0 0 0 
645 2 16.6002 10.352 -16.951 0 0 0 
665 2 1.49583 12.0291 -16.2017 0 0 0 
675 2 -8.27859 17.9755 -12.7852 0 0 0 
670 2 -17.7102 -17.5812 -7.10519 0 0 0 
649 2 5.5262 -12.2915 -16.0855 0 0 0 
677 2 6.13493 -5.51559 -14.3449 0 0 0 
608 2 -15.9457 -9.32821 -14.004 0 0 0 
296 1 0.918645 -5.68296 -14.0119 0 0 0 
295 1 0.752563 -6.58474 -13.71 0 0 0 
298 1 1.34498 -4.14454 -13.6606 0 0 0 
300 1 0.937639 -2.60951 -12.7754 0 0 0 
299 1 1.42993 -3.55656 -12.9331 0 0 0 
505 2 1.55718 10.5046 -12.8315 0 0 0 
577 2 8.05068 15.7106 -13.6065 0 0 0 
513 2 16.7548 -3.48734 -9.09185 0 0 0 
610 2 -6.50023 -3.7927 -15.145 0 0 0 
246 1 -1.79949 -4.69141 -11.0726 0 0 0 
294 1 1.38953 -6.90636 -13.0115 0 0 0 
293 1 1.5302 -7.45062 -12.2287 0 0 0 
554 2 12.0017 -2.02735 -12.8655 0 0 0 
656 2 5.59452 -6.68603 -9.86107 0 0 0 
622 2 9.39867 -5.15496 -11.2586 0 0 0 
247 1 -2.59761 -5.15775 -11.2828 0 0 0 
248 1 -3.43924 -4.74755 -10.8734 0 0 0 
249 1 -4.3653 -4.4347 -10.8531 0 0 0 
251 1 -5.05769 -2.72919 -11.3336 0 0 0 
250 1 -4.66927 -3.49447 -10.8731 0 0 0 
302 1 0.483796 -0.926829 -12.1896 0 0 0 
301 1 0.864138 -1.80216 -12.2851 0 0 0 
303 1 -0.401657 -0.56754 -12.0827 0 0 0 
252 1 -5.63434 -1.91536 -11.601 0 0 0 
253 1 -5.35615 -1.21799 -12.2239 0 0 0 
254 1 -5.0231 -0.407134 -12.6456 0 0 0 
255 1 -5.1872 0.422278 -13.0914 0 0 0 
256 1 -4.9839 1.25259 -12.666 0 0 0 
257 1 -4.55193 2.04787 -12.3623 0 0 0 
628 2 2.39658 9.96098 -10.7886 0 0 0 
605 2 3.55928 6.67182 -5.3079 0 0 0 
563 2 -14.9417 9.45478 -12.117 0 0 0 
523 2 1.40966 13.9487 -16.7345 0 0 0 
700 2 3.75148 13.8833 -10.3373 0 0 0 
196 1 -10.7943 -8.99656 -10.7153 0 0 0 
693 2 1.18697 -9.00748 -3.99459 0 0 0 
197 1 -11.0586 -8.1352 -10.3364 0 0 0 
199 1 -11.2193 -7.81755 -8.40443 0 0 0 
200 1 -10.4496 -7.44586 -8.06303 0 0 0 
201 1 -10.0154 -6.60642 -7.95792 0 0 0 
443 1 -8.69402 -6.9763 -6.40589 0 0 0 
444 1 -8.39063 -7.01352 -7.31859 0 0 0 
205 1 -7.32836 -5.39755 -7.88029 0 0 0 
682 2 -6.51583 -6.26401 -7.17957 0 0 0 
291 1 1.2936 -7.69345 -10.3993 0 0 0 